# vtk DataFile Version 3.0
A testfile to try PCA on some non-existing landmarks
ASCII
DATASET UNSTRUCTURED_GRID

POINTS 15 int
0 1 0
5 3 0
-2 1 0
3 7 0
5 7 0
3 3 0
1 1 0
-5 1 0
-3 7 0
4 4 0
1 7 0
-7 0 0
-3 -2 0
-3 4 0
2 -4 0

CELLS 15 60
1 0
1 1
1 2
1 3
1 4
1 5
1 6
1 7
1 8
1 9
1 10
1 11
1 12
1 13
1 14

CELL_TYPES 15
1
1
1
1
1
1
1
1
1
1
1
1
1
1
1

POINT_DATA 15
SCALARS scalars float 1
LOOKUP_TABLE default
0.0 1.0 2.0 3.0 4.0 5.0
6.0 7.0 8.0 9.0 10.0 11.0
12.0 13.0 14.0