# vtk DataFile Version 2.0
A polygonal sphere with point scalars and vectors and cell scalars
ASCII	
DATASET POLYDATA

POINTS 938 float
6.12323e-17 -1 0
0.207912 -0.978148 0
5.98943e-17 -1 1.27309e-17
0.203368 -0.978148 0.0432273
5.59385e-17 -1 2.49054e-17
0.189937 -0.978148 0.0845653
4.9538e-17 -1 3.59915e-17
0.168204 -0.978148 0.122207
4.09724e-17 -1 4.55045e-17
0.13912 -0.978148 0.154509
3.06162e-17 -1 5.30288e-17
0.103956 -0.978148 0.180057
1.89218e-17 -1 5.82354e-17
0.0642482 -0.978148 0.197736
6.40052e-18 -1 6.08969e-17
0.0217327 -0.978148 0.206773
-6.40052e-18 -1 6.08969e-17
-0.0217327 -0.978148 0.206773
-1.89218e-17 -1 5.82354e-17
-0.0642482 -0.978148 0.197736
-3.06162e-17 -1 5.30288e-17
-0.103956 -0.978148 0.180057
-4.09724e-17 -1 4.55045e-17
-0.13912 -0.978148 0.154509
-4.9538e-17 -1 3.59915e-17
-0.168204 -0.978148 0.122207
-5.59385e-17 -1 2.49054e-17
-0.189937 -0.978148 0.0845653
-5.98943e-17 -1 1.27309e-17
-0.203368 -0.978148 0.0432273
-6.12323e-17 -1 3.46914e-32
-0.207912 -0.978148 1.17793e-16
-5.98943e-17 -1 -1.27309e-17
-0.203368 -0.978148 -0.0432273
-5.59385e-17 -1 -2.49054e-17
-0.189937 -0.978148 -0.0845653
-4.9538e-17 -1 -3.59915e-17
-0.168204 -0.978148 -0.122207
-4.09724e-17 -1 -4.55045e-17
-0.13912 -0.978148 -0.154509
-3.06162e-17 -1 -5.30288e-17
-0.103956 -0.978148 -0.180057
-1.89218e-17 -1 -5.82354e-17
-0.0642482 -0.978148 -0.197736
-6.40052e-18 -1 -6.08969e-17
-0.0217327 -0.978148 -0.206773
6.40052e-18 -1 -6.08969e-17
0.0217327 -0.978148 -0.206773
1.89218e-17 -1 -5.82354e-17
0.0642482 -0.978148 -0.197736
3.06162e-17 -1 -5.30288e-17
0.103956 -0.978148 -0.180057
4.09724e-17 -1 -4.55045e-17
0.13912 -0.978148 -0.154509
4.9538e-17 -1 -3.59915e-17
0.168204 -0.978148 -0.122207
5.59385e-17 -1 -2.49054e-17
0.189937 -0.978148 -0.0845653
5.98943e-17 -1 -1.27309e-17
0.203368 -0.978148 -0.0432273
6.12323e-17 -1 -6.93828e-32
0.207912 -0.978148 -2.35586e-16
0.207912 -0.978148 0
0.406737 -0.913545 0
0.203368 -0.978148 0.0432273
0.397848 -0.913545 0.0845653
0.189937 -0.978148 0.0845653
0.371572 -0.913545 0.165435
0.168204 -0.978148 0.122207
0.329057 -0.913545 0.239074
0.13912 -0.978148 0.154509
0.27216 -0.913545 0.302264
0.103956 -0.978148 0.180057
0.203368 -0.913545 0.352244
0.0642482 -0.978148 0.197736
0.125689 -0.913545 0.38683
0.0217327 -0.978148 0.206773
0.0425156 -0.913545 0.404509
-0.0217327 -0.978148 0.206773
-0.0425156 -0.913545 0.404509
-0.0642482 -0.978148 0.197736
-0.125689 -0.913545 0.38683
-0.103956 -0.978148 0.180057
-0.203368 -0.913545 0.352244
-0.13912 -0.978148 0.154509
-0.27216 -0.913545 0.302264
-0.168204 -0.978148 0.122207
-0.329057 -0.913545 0.239074
-0.189937 -0.978148 0.0845653
-0.371572 -0.913545 0.165435
-0.203368 -0.978148 0.0432273
-0.397848 -0.913545 0.0845653
-0.207912 -0.978148 1.17793e-16
-0.406737 -0.913545 2.30438e-16
-0.203368 -0.978148 -0.0432273
-0.397848 -0.913545 -0.0845653
-0.189937 -0.978148 -0.0845653
-0.371572 -0.913545 -0.165435
-0.168204 -0.978148 -0.122207
-0.329057 -0.913545 -0.239074
-0.13912 -0.978148 -0.154509
-0.27216 -0.913545 -0.302264
-0.103956 -0.978148 -0.180057
-0.203368 -0.913545 -0.352244
-0.0642482 -0.978148 -0.197736
-0.125689 -0.913545 -0.38683
-0.0217327 -0.978148 -0.206773
-0.0425156 -0.913545 -0.404509
0.0217327 -0.978148 -0.206773
0.0425156 -0.913545 -0.404509
0.0642482 -0.978148 -0.197736
0.125689 -0.913545 -0.38683
0.103956 -0.978148 -0.180057
0.203368 -0.913545 -0.352244
0.13912 -0.978148 -0.154509
0.27216 -0.913545 -0.302264
0.168204 -0.978148 -0.122207
0.329057 -0.913545 -0.239074
0.189937 -0.978148 -0.0845653
0.371572 -0.913545 -0.165435
0.203368 -0.978148 -0.0432273
0.397848 -0.913545 -0.0845653
0.207912 -0.978148 -2.35586e-16
0.406737 -0.913545 -4.60876e-16
0.406737 -0.913545 0
0.587785 -0.809017 0
0.397848 -0.913545 0.0845653
0.574941 -0.809017 0.122207
0.371572 -0.913545 0.165435
0.536969 -0.809017 0.239074
0.329057 -0.913545 0.239074
0.475528 -0.809017 0.345491
0.27216 -0.913545 0.302264
0.393305 -0.809017 0.43681
0.203368 -0.913545 0.352244
0.293893 -0.809017 0.509037
0.125689 -0.913545 0.38683
0.181636 -0.809017 0.559017
0.0425156 -0.913545 0.404509
0.0614403 -0.809017 0.584565
-0.0425156 -0.913545 0.404509
-0.0614403 -0.809017 0.584565
-0.125689 -0.913545 0.38683
-0.181636 -0.809017 0.559017
-0.203368 -0.913545 0.352244
-0.293893 -0.809017 0.509037
-0.27216 -0.913545 0.302264
-0.393305 -0.809017 0.43681
-0.329057 -0.913545 0.239074
-0.475528 -0.809017 0.345491
-0.371572 -0.913545 0.165435
-0.536969 -0.809017 0.239074
-0.397848 -0.913545 0.0845653
-0.574941 -0.809017 0.122207
-0.406737 -0.913545 2.30438e-16
-0.587785 -0.809017 3.33012e-16
-0.397848 -0.913545 -0.0845653
-0.574941 -0.809017 -0.122207
-0.371572 -0.913545 -0.165435
-0.536969 -0.809017 -0.239074
-0.329057 -0.913545 -0.239074
-0.475528 -0.809017 -0.345491
-0.27216 -0.913545 -0.302264
-0.393305 -0.809017 -0.43681
-0.203368 -0.913545 -0.352244
-0.293893 -0.809017 -0.509037
-0.125689 -0.913545 -0.38683
-0.181636 -0.809017 -0.559017
-0.0425156 -0.913545 -0.404509
-0.0614403 -0.809017 -0.584565
0.0425156 -0.913545 -0.404509
0.0614403 -0.809017 -0.584565
0.125689 -0.913545 -0.38683
0.181636 -0.809017 -0.559017
0.203368 -0.913545 -0.352244
0.293893 -0.809017 -0.509037
0.27216 -0.913545 -0.302264
0.393305 -0.809017 -0.43681
0.329057 -0.913545 -0.239074
0.475528 -0.809017 -0.345491
0.371572 -0.913545 -0.165435
0.536969 -0.809017 -0.239074
0.397848 -0.913545 -0.0845653
0.574941 -0.809017 -0.122207
0.406737 -0.913545 -4.60876e-16
0.587785 -0.809017 -6.66024e-16
0.587785 -0.809017 0
0.743145 -0.669131 0
0.574941 -0.809017 0.122207
0.726905 -0.669131 0.154509
0.536969 -0.809017 0.239074
0.678897 -0.669131 0.302264
0.475528 -0.809017 0.345491
0.601217 -0.669131 0.43681
0.393305 -0.809017 0.43681
0.497261 -0.669131 0.552264
0.293893 -0.809017 0.509037
0.371572 -0.669131 0.643582
0.181636 -0.809017 0.559017
0.229644 -0.669131 0.706773
0.0614403 -0.809017 0.584565
0.0776798 -0.669131 0.739074
-0.0614403 -0.809017 0.584565
-0.0776798 -0.669131 0.739074
-0.181636 -0.809017 0.559017
-0.229644 -0.669131 0.706773
-0.293893 -0.809017 0.509037
-0.371572 -0.669131 0.643582
-0.393305 -0.809017 0.43681
-0.497261 -0.669131 0.552264
-0.475528 -0.809017 0.345491
-0.601217 -0.669131 0.43681
-0.536969 -0.809017 0.239074
-0.678897 -0.669131 0.302264
-0.574941 -0.809017 0.122207
-0.726905 -0.669131 0.154509
-0.587785 -0.809017 3.33012e-16
-0.743145 -0.669131 4.21032e-16
-0.574941 -0.809017 -0.122207
-0.726905 -0.669131 -0.154509
-0.536969 -0.809017 -0.239074
-0.678897 -0.669131 -0.302264
-0.475528 -0.809017 -0.345491
-0.601217 -0.669131 -0.43681
-0.393305 -0.809017 -0.43681
-0.497261 -0.669131 -0.552264
-0.293893 -0.809017 -0.509037
-0.371572 -0.669131 -0.643582
-0.181636 -0.809017 -0.559017
-0.229644 -0.669131 -0.706773
-0.0614403 -0.809017 -0.584565
-0.0776798 -0.669131 -0.739074
0.0614403 -0.809017 -0.584565
0.0776798 -0.669131 -0.739074
0.181636 -0.809017 -0.559017
0.229644 -0.669131 -0.706773
0.293893 -0.809017 -0.509037
0.371572 -0.669131 -0.643582
0.393305 -0.809017 -0.43681
0.497261 -0.669131 -0.552264
0.475528 -0.809017 -0.345491
0.601217 -0.669131 -0.43681
0.536969 -0.809017 -0.239074
0.678897 -0.669131 -0.302264
0.574941 -0.809017 -0.122207
0.726905 -0.669131 -0.154509
0.587785 -0.809017 -6.66024e-16
0.743145 -0.669131 -8.42063e-16
0.743145 -0.669131 0
0.866025 -0.5 0
0.726905 -0.669131 0.154509
0.847101 -0.5 0.180057
0.678897 -0.669131 0.302264
0.791154 -0.5 0.352244
0.601217 -0.669131 0.43681
0.700629 -0.5 0.509037
0.497261 -0.669131 0.552264
0.579484 -0.5 0.643582
0.371572 -0.669131 0.643582
0.433013 -0.5 0.75
0.229644 -0.669131 0.706773
0.267617 -0.5 0.823639
0.0776798 -0.669131 0.739074
0.0905243 -0.5 0.861281
-0.0776798 -0.669131 0.739074
-0.0905243 -0.5 0.861281
-0.229644 -0.669131 0.706773
-0.267617 -0.5 0.823639
-0.371572 -0.669131 0.643582
-0.433013 -0.5 0.75
-0.497261 -0.669131 0.552264
-0.579484 -0.5 0.643582
-0.601217 -0.669131 0.43681
-0.700629 -0.5 0.509037
-0.678897 -0.669131 0.302264
-0.791154 -0.5 0.352244
-0.726905 -0.669131 0.154509
-0.847101 -0.5 0.180057
-0.743145 -0.669131 4.21032e-16
-0.866025 -0.5 4.9065e-16
-0.726905 -0.669131 -0.154509
-0.847101 -0.5 -0.180057
-0.678897 -0.669131 -0.302264
-0.791154 -0.5 -0.352244
-0.601217 -0.669131 -0.43681
-0.700629 -0.5 -0.509037
-0.497261 -0.669131 -0.552264
-0.579484 -0.5 -0.643582
-0.371572 -0.669131 -0.643582
-0.433013 -0.5 -0.75
-0.229644 -0.669131 -0.706773
-0.267617 -0.5 -0.823639
-0.0776798 -0.669131 -0.739074
-0.0905243 -0.5 -0.861281
0.0776798 -0.669131 -0.739074
0.0905243 -0.5 -0.861281
0.229644 -0.669131 -0.706773
0.267617 -0.5 -0.823639
0.371572 -0.669131 -0.643582
0.433013 -0.5 -0.75
0.497261 -0.669131 -0.552264
0.579484 -0.5 -0.643582
0.601217 -0.669131 -0.43681
0.700629 -0.5 -0.509037
0.678897 -0.669131 -0.302264
0.791154 -0.5 -0.352244
0.726905 -0.669131 -0.154509
0.847101 -0.5 -0.180057
0.743145 -0.669131 -8.42063e-16
0.866025 -0.5 -9.813e-16
0.866025 -0.5 0
0.951057 -0.309017 0
0.847101 -0.5 0.180057
0.930274 -0.309017 0.197736
0.791154 -0.5 0.352244
0.868833 -0.309017 0.38683
0.700629 -0.5 0.509037
0.769421 -0.309017 0.559017
0.579484 -0.5 0.643582
0.636381 -0.309017 0.706773
0.433013 -0.5 0.75
0.475528 -0.309017 0.823639
0.267617 -0.5 0.823639
0.293893 -0.309017 0.904508
0.0905243 -0.5 0.861281
0.0994125 -0.309017 0.945847
-0.0905243 -0.5 0.861281
-0.0994125 -0.309017 0.945847
-0.267617 -0.5 0.823639
-0.293893 -0.309017 0.904508
-0.433013 -0.5 0.75
-0.475528 -0.309017 0.823639
-0.579484 -0.5 0.643582
-0.636381 -0.309017 0.706773
-0.700629 -0.5 0.509037
-0.769421 -0.309017 0.559017
-0.791154 -0.5 0.352244
-0.868833 -0.309017 0.38683
-0.847101 -0.5 0.180057
-0.930274 -0.309017 0.197736
-0.866025 -0.5 4.9065e-16
-0.951057 -0.309017 5.38825e-16
-0.847101 -0.5 -0.180057
-0.930274 -0.309017 -0.197736
-0.791154 -0.5 -0.352244
-0.868833 -0.309017 -0.38683
-0.700629 -0.5 -0.509037
-0.769421 -0.309017 -0.559017
-0.579484 -0.5 -0.643582
-0.636381 -0.309017 -0.706773
-0.433013 -0.5 -0.75
[...]
POINT_DATA 938
SCALARS my_scalars float 1
LOOKUP_TABLE default
0 0 1.27309e-17 0.0432273 2.49054e-17 0.0845653 3.59915e-17 0.122207 4.55045e-17 0.154509 5.30288e-17 0.180057 5.82354e-17 0.197736 6.08969e-17 0.206773 6.08969e-17 0.206773 5.82354e-17 0.197736 5.30288e-17 0.180057 4.55045e-17 0.154509 3.59915e-17 0.122207 2.49054e-17 0.0845653 1.27309e-17 0.0432273 3.46914e-32 1.17793e-16 -1.27309e-17 -0.0432273 -2.49054e-17 -0.0845653 -3.59915e-17 -0.122207 -4.55045e-17 -0.154509 -5.30288e-17 -0.180057 -5.82354e-17 -0.197736 -6.08969e-17 -0.206773 -6.08969e-17 -0.206773 -5.82354e-17 -0.197736 -5.30288e-17 -0.180057 -4.55045e-17 -0.154509 -3.59915e-17 -0.122207 -2.49054e-17 -0.0845653 -1.27309e-17 -0.0432273 -6.93828e-32 -2.35586e-16 0 0 0.0432273 0.0845653 0.0845653 0.165435 0.122207 0.239074 0.154509 0.302264 0.180057 0.352244 0.197736 0.38683 0.206773 0.404509 0.206773 0.404509 0.197736 0.38683 0.180057 0.352244 0.154509 0.302264 0.122207 0.239074 0.0845653 0.165435 0.0432273 0.0845653 1.17793e-16 2.30438e-16 -0.0432273 -0.0845653 -0.0845653 -0.165435 -0.122207 -0.239074 -0.154509 -0.302264 -0.180057 -0.352244 -0.197736 -0.38683 -0.206773 -0.404509 -0.206773 -0.404509 -0.197736 -0.38683 -0.180057 -0.352244 -0.154509 -0.302264 -0.122207 -0.239074 -0.0845653 -0.165435 -0.0432273 -0.0845653 -2.35586e-16 -4.60876e-16 0 0 0.0845653 0.122207 0.165435 0.239074 0.239074 0.345491 0.302264 0.43681 0.352244 0.509037 0.38683 0.559017 0.404509 0.584565 0.404509 0.584565 0.38683 0.559017 0.352244 0.509037 0.302264 0.43681 0.239074 0.345491 0.165435 0.239074 0.0845653 0.122207 2.30438e-16 3.33012e-16 -0.0845653 -0.122207 -0.165435 -0.239074 -0.239074 -0.345491 -0.302264 -0.43681 -0.352244 -0.509037 -0.38683 -0.559017 -0.404509 -0.584565 -0.404509 -0.584565 -0.38683 -0.559017 -0.352244 -0.509037 -0.302264 -0.43681 -0.239074 -0.345491 -0.165435 -0.239074 -0.0845653 -0.122207 -4.60876e-16 -6.66024e-16 0 0 0.122207 0.154509 0.239074 0.302264 0.345491 0.43681 0.43681 0.552264 0.509037 0.643582 0.559017 0.706773 0.584565 0.739074 0.584565 0.739074 0.559017 0.706773 0.509037 0.643582 0.43681 0.552264 0.345491 0.43681 0.239074 0.302264 0.122207 0.154509 3.33012e-16 4.21032e-16 -0.122207 -0.154509 -0.239074 -0.302264 -0.345491 -0.43681 -0.43681 -0.552264 -0.509037 -0.643582 -0.559017 -0.706773 -0.584565 -0.739074 -0.584565 -0.739074 -0.559017 -0.706773 -0.509037 -0.643582 -0.43681 -0.552264 -0.345491 -0.43681 -0.239074 -0.302264 -0.122207 -0.154509 -6.66024e-16 -8.42063e-16 0 0 0.154509 0.180057 0.302264 0.352244 0.43681 0.509037 0.552264 0.643582 0.643582 0.75 0.706773 0.823639 0.739074 0.861281 0.739074 0.861281 0.706773 0.823639 0.643582 0.75 0.552264 0.643582 0.43681 0.509037 0.302264 0.352244 0.154509 0.180057 4.21032e-16 4.9065e-16 -0.154509 -0.180057 -0.302264 -0.352244 -0.43681 -0.509037 -0.552264 -0.643582 -0.643582 -0.75 -0.706773 -0.823639 -0.739074 -0.861281 -0.739074 -0.861281 -0.706773 -0.823639 -0.643582 -0.75 -0.552264 -0.643582 -0.43681 -0.509037 -0.302264 -0.352244 -0.154509 -0.180057 -8.42063e-16 -9.813e-16 0 0 0.180057 0.197736 0.352244 0.38683 0.509037 0.559017 0.643582 0.706773 0.75 0.823639 0.823639 0.904508 0.861281 0.945847 0.861281 0.945847 0.823639 0.904508 0.75 0.823639 0.643582 0.706773 0.509037 0.559017 0.352244 0.38683 0.180057 0.197736 4.9065e-16 5.38825e-16 -0.180057 -0.197736 -0.352244 -0.38683 -0.509037 -0.559017 -0.643582 -0.706773 -0.75 -0.823639 -0.823639 -0.904508 -0.861281 -0.945847 -0.861281 -0.945847 -0.823639 -0.904508 -0.75 -0.823639 -0.643582 -0.706773 -0.509037 -0.559017 -0.352244 -0.38683 -0.180057 -0.197736 -9.813e-16 -1.07765e-15 0 0 0.197736 0.206773 0.38683 0.404509 0.559017 0.584565 0.706773 0.739074 0.823639 0.861281 0.904508 0.945847 0.945847 0.989074 0.945847 0.989074 0.904508 0.945847 0.823639 0.861281 0.706773 0.739074 0.559017 0.584565 0.38683 0.404509 0.197736 0.206773 5.38825e-16 5.6345e-16 -0.197736 -0.206773 -0.38683 -0.404509 -0.559017 -0.584565 -0.706773 -0.739074 -0.823639 -0.861281 -0.904508 -0.945847 -0.945847 -0.989074 -0.945847 -0.989074 -0.904508 -0.945847 -0.823639 -0.861281 -0.706773 -0.739074 -0.559017 -0.584565 -0.38683 -0.404509 -0.197736 -0.206773 -1.07765e-15 -1.1269e-15 0 0 0.206773 0.206773 0.404509 0.404509 0.584565 0.584565 0.739074 0.739074 0.861281 0.861281 0.945847 0.945847 0.989074 0.989074 0.989074 0.989074 0.945847 0.945847 0.861281 0.861281 0.739074 0.739074 0.584565 0.584565 0.404509 0.404509 0.206773 0.206773 5.6345e-16 5.6345e-16 -0.206773 -0.206773 -0.404509 -0.404509 -0.584565 -0.584565 -0.739074 -0.739074 -0.861281 -0.861281 -0.945847 -0.945847 -0.989074 -0.989074 -0.989074 -0.989074 -0.945847 -0.945847 -0.861281 -0.861281 -0.739074 -0.739074 -0.584565 -0.584565 -0.404509 -0.404509 -0.206773 -0.206773 -1.1269e-15 -1.1269e-15 0 0 0.206773 0.197736 0.404509 0.38683 0.584565 0.559017 0.739074 0.706773 0.861281 0.823639 0.945847 0.904508 0.989074 0.945847 0.989074 0.945847 0.945847 0.904508 0.861281 0.823639 0.739074 0.706773 0.584565 0.559017 0.404509 0.38683 0.206773 0.197736 5.6345e-16 5.38825e-16 -0.206773 -0.197736 -0.404509 -0.38683 -0.584565 -0.559017 -0.739074 -0.706773 -0.861281 -0.823639 -0.945847 -0.904508 -0.989074 -0.945847 -0.989074 -0.945847 -0.945847 -0.904508 -0.861281 -0.823639 -0.739074 -0.706773 -0.584565 -0.559017 -0.404509 -0.38683 -0.206773 -0.197736 -1.1269e-15 -1.07765e-15 0 0 0.197736 0.180057 0.38683 0.352244 0.559017 0.509037 0.706773 0.643582 0.823639 0.75 0.904508 0.823639 0.945847 0.861281 0.945847 0.861281 0.904508 0.823639 0.823639 0.75 0.706773 0.643582 0.559017 0.509037 0.38683 0.352244 0.197736 0.180057 5.38825e-16 4.9065e-16 -0.197736 -0.180057 -0.38683 -0.352244 -0.559017 -0.509037 -0.706773 -0.643582 -0.823639 -0.75 -0.904508 -0.823639 -0.945847 -0.861281 -0.945847 -0.861281 -0.904508 -0.823639 -0.823639 -0.75 -0.706773 -0.643582 -0.559017 -0.509037 -0.38683 -0.352244 -0.197736 -0.180057 -1.07765e-15 -9.813e-16 0 0 0.180057 0.154509 0.352244 0.302264 0.509037 0.43681 0.643582 0.552264 0.75 0.643582 0.823639 0.706773 0.861281 0.739074 0.861281 0.739074 0.823639 0.706773 0.75 0.643582 0.643582 0.552264 0.509037 0.43681 0.352244 0.302264 0.180057 0.154509 4.9065e-16 4.21032e-16 -0.180057 -0.154509 -0.352244 -0.302264 -0.509037 -0.43681 -0.643582 -0.552264 -0.75 -0.643582 -0.823639 -0.706773 -0.861281 -0.739074 -0.861281 -0.739074 -0.823639 -0.706773 -0.75 -0.643582 -0.643582 -0.552264 -0.509037 -0.43681 -0.352244 -0.302264 -0.180057 -0.154509 -9.813e-16 -8.42063e-16 0 0 0.154509 0.122207 0.302264 0.239074 0.43681 0.345491 0.552264 0.43681 0.643582 0.509037 0.706773 0.559017 0.739074 0.584565 0.739074 0.584565 0.706773 0.559017 0.643582 0.509037 0.552264 0.43681 0.43681 0.345491 0.302264 0.239074 0.154509 0.122207 4.21032e-16 3.33012e-16 -0.154509 -0.122207 -0.302264 -0.239074 -0.43681 -0.345491 -0.552264 -0.43681 -0.643582 -0.509037 -0.706773 -0.559017 -0.739074 -0.584565 -0.739074 -0.584565 -0.706773 -0.559017 -0.643582 -0.509037 -0.552264 -0.43681 -0.43681 -0.345491 -0.302264 -0.239074 -0.154509 -0.122207 -8.42063e-16 -6.66024e-16 0 0 0.122207 0.0845653 0.239074 0.165435 0.345491 0.239074 0.43681 0.302264 0.509037 0.352244 0.559017 0.38683 0.584565 0.404509 0.584565 0.404509 0.559017 0.38683 0.509037 0.352244 0.43681 0.302264 0.345491 0.239074 0.239074 0.165435 0.122207 0.0845653 3.33012e-16 2.30438e-16 -0.122207 -0.0845653 -0.239074 -0.165435 -0.345491 -0.239074 -0.43681 -0.302264 -0.509037 -0.352244 -0.559017 -0.38683 -0.584565 -0.404509 -0.584565 -0.404509 -0.559017 -0.38683 -0.509037 -0.352244 -0.43681 -0.302264 -0.345491 -0.239074 -0.239074 -0.165435 -0.122207 -0.0845653 -6.66024e-16 -4.60876e-16 0 0 0.0845653 0.0432273 0.165435 0.0845653 0.239074 0.122207 0.302264 0.154509 0.352244 0.180057 0.38683 0.197736 0.404509 0.206773 0.404509 0.206773 0.38683 0.197736 0.352244 0.180057 0.302264 0.154509 0.239074 0.122207 0.165435 0.0845653 0.0845653 0.0432273 2.30438e-16 1.17793e-16 -0.0845653 -0.0432273 -0.165435 -0.0845653 -0.239074 -0.122207 -0.302264 -0.154509 -0.352244 -0.180057 -0.38683 -0.197736 -0.404509 -0.206773 -0.404509 -0.206773 -0.38683 -0.197736 -0.352244 -0.180057 -0.302264 -0.154509 -0.239074 -0.122207 -0.165435 -0.0845653 -0.0845653 -0.0432273 -4.60876e-16 -2.35586e-16 0 0 0.0432273 1.05062e-16 0.0845653 2.05533e-16 0.122207 2.97021e-16 0.154509 3.75527e-16 0.180057 4.37621e-16 0.197736 4.80589e-16 0.206773 5.02553e-16 0.206773 5.02553e-16 0.197736 4.80589e-16 0.180057 4.37621e-16 0.154509 3.75527e-16 0.122207 2.97021e-16 0.0845653 2.05533e-16 0.0432273 1.05062e-16 1.17793e-16 2.86292e-31 -0.0432273 -1.05062e-16 -0.0845653 -2.05533e-16 -0.122207 -2.97021e-16 -0.154509 -3.75527e-16 -0.180057 -4.37621e-16 -0.197736 -4.80589e-16 -0.206773 -5.02553e-16 -0.206773 -5.02553e-16 -0.197736 -4.80589e-16 -0.180057 -4.37621e-16 -0.154509 -3.75527e-16 -0.122207 -2.97021e-16 -0.0845653 -2.05533e-16 -0.0432273 -1.05062e-16 -2.35586e-16 -5.72584e-31 0 0 0 0 0 0 0 0

VECTORS my_vectors float
6.12323e-17 -1 0
0.207912 -0.978148 0
5.98943e-17 -1 1.27309e-17
0.203368 -0.978148 0.0432273
5.59385e-17 -1 2.49054e-17
0.189937 -0.978148 0.0845653
4.9538e-17 -1 3.59915e-17
0.168204 -0.978148 0.122207
4.09724e-17 -1 4.55045e-17
0.13912 -0.978148 0.154509
3.06162e-17 -1 5.30288e-17
0.103956 -0.978148 0.180057
1.89218e-17 -1 5.82354e-17
0.0642482 -0.978148 0.197736
6.40052e-18 -1 6.08969e-17
0.0217327 -0.978148 0.206773
-6.40052e-18 -1 6.08969e-17
-0.0217327 -0.978148 0.206773
-1.89218e-17 -1 5.82354e-17
-0.0642482 -0.978148 0.197736
-3.06162e-17 -1 5.30288e-17
-0.103956 -0.978148 0.180057
-4.09724e-17 -1 4.55045e-17
-0.13912 -0.978148 0.154509
-4.9538e-17 -1 3.59915e-17
-0.168204 -0.978148 0.122207
-5.59385e-17 -1 2.49054e-17
-0.189937 -0.978148 0.0845653
-5.98943e-17 -1 1.27309e-17
-0.203368 -0.978148 0.0432273
-6.12323e-17 -1 3.46914e-32
-0.207912 -0.978148 1.17793e-16
-5.98943e-17 -1 -1.27309e-17
-0.203368 -0.978148 -0.0432273
-5.59385e-17 -1 -2.49054e-17
-0.189937 -0.978148 -0.0845653
-4.9538e-17 -1 -3.59915e-17
-0.168204 -0.978148 -0.122207
-4.09724e-17 -1 -4.55045e-17
-0.13912 -0.978148 -0.154509
-3.06162e-17 -1 -5.30288e-17
-0.103956 -0.978148 -0.180057
-1.89218e-17 -1 -5.82354e-17
-0.0642482 -0.978148 -0.197736
-6.40052e-18 -1 -6.08969e-17
-0.0217327 -0.978148 -0.206773
6.40052e-18 -1 -6.08969e-17
0.0217327 -0.978148 -0.206773
1.89218e-17 -1 -5.82354e-17
0.0642482 -0.978148 -0.197736
3.06162e-17 -1 -5.30288e-17
0.103956 -0.978148 -0.180057
4.09724e-17 -1 -4.55045e-17
0.13912 -0.978148 -0.154509
4.9538e-17 -1 -3.59915e-17
0.168204 -0.978148 -0.122207
5.59385e-17 -1 -2.49054e-17
0.189937 -0.978148 -0.0845653
5.98943e-17 -1 -1.27309e-17
0.203368 -0.978148 -0.0432273
6.12323e-17 -1 -6.93828e-32
0.207912 -0.978148 -2.35586e-16
0.207912 -0.978148 0
0.406737 -0.913545 0
0.203368 -0.978148 0.0432273
0.397848 -0.913545 0.0845653
0.189937 -0.978148 0.0845653
0.371572 -0.913545 0.165435
0.168204 -0.978148 0.122207
0.329057 -0.913545 0.239074
0.13912 -0.978148 0.154509
0.27216 -0.913545 0.302264
0.103956 -0.978148 0.180057
0.203368 -0.913545 0.352244
0.0642482 -0.978148 0.197736
0.125689 -0.913545 0.38683
0.0217327 -0.978148 0.206773
0.0425156 -0.913545 0.404509
-0.0217327 -0.978148 0.206773
-0.0425156 -0.913545 0.404509
-0.0642482 -0.978148 0.197736
-0.125689 -0.913545 0.38683
-0.103956 -0.978148 0.180057
-0.203368 -0.913545 0.352244
-0.13912 -0.978148 0.154509
-0.27216 -0.913545 0.302264
-0.168204 -0.978148 0.122207
-0.329057 -0.913545 0.239074
-0.189937 -0.978148 0.0845653
-0.371572 -0.913545 0.165435
-0.203368 -0.978148 0.0432273
-0.397848 -0.913545 0.0845653
-0.207912 -0.978148 1.17793e-16
-0.406737 -0.913545 2.30438e-16
-0.203368 -0.978148 -0.0432273
-0.397848 -0.913545 -0.0845653
-0.189937 -0.978148 -0.0845653
-0.371572 -0.913545 -0.165435
-0.168204 -0.978148 -0.122207
-0.329057 -0.913545 -0.239074
-0.13912 -0.978148 -0.154509
-0.27216 -0.913545 -0.302264
-0.103956 -0.978148 -0.180057
-0.203368 -0.913545 -0.352244
-0.0642482 -0.978148 -0.197736
-0.125689 -0.913545 -0.38683
-0.0217327 -0.978148 -0.206773
-0.0425156 -0.913545 -0.404509
0.0217327 -0.978148 -0.206773
0.0425156 -0.913545 -0.404509
0.0642482 -0.978148 -0.197736
0.125689 -0.913545 -0.38683
0.103956 -0.978148 -0.180057
0.203368 -0.913545 -0.352244
0.13912 -0.978148 -0.154509
0.27216 -0.913545 -0.302264
0.168204 -0.978148 -0.122207
0.329057 -0.913545 -0.239074
0.189937 -0.978148 -0.0845653
0.371572 -0.913545 -0.165435
0.203368 -0.978148 -0.0432273
0.397848 -0.913545 -0.0845653
0.207912 -0.978148 -2.35586e-16
0.406737 -0.913545 -4.60876e-16
0.406737 -0.913545 0
0.587785 -0.809017 0
0.397848 -0.913545 0.0845653
0.574941 -0.809017 0.122207
0.371572 -0.913545 0.165435
0.536969 -0.809017 0.239074
0.329057 -0.913545 0.239074
0.475528 -0.809017 0.345491
0.27216 -0.913545 0.302264
0.393305 -0.809017 0.43681
0.203368 -0.913545 0.352244
0.293893 -0.809017 0.509037
0.125689 -0.913545 0.38683
0.181636 -0.809017 0.559017
0.0425156 -0.913545 0.404509
0.0614403 -0.809017 0.584565
-0.0425156 -0.913545 0.404509
-0.0614403 -0.809017 0.584565
-0.125689 -0.913545 0.38683
-0.181636 -0.809017 0.559017
-0.203368 -0.913545 0.352244
-0.293893 -0.809017 0.509037
-0.27216 -0.913545 0.302264
-0.393305 -0.809017 0.43681
-0.329057 -0.913545 0.239074
-0.475528 -0.809017 0.345491
-0.371572 -0.913545 0.165435
-0.536969 -0.809017 0.239074
-0.397848 -0.913545 0.0845653
-0.574941 -0.809017 0.122207
-0.406737 -0.913545 2.30438e-16
-0.587785 -0.809017 3.33012e-16
-0.397848 -0.913545 -0.0845653
-0.574941 -0.809017 -0.122207
-0.371572 -0.913545 -0.165435
-0.536969 -0.809017 -0.239074
-0.329057 -0.913545 -0.239074
-0.475528 -0.809017 -0.345491
-0.27216 -0.913545 -0.302264
-0.393305 -0.809017 -0.43681
-0.203368 -0.913545 -0.352244
-0.293893 -0.809017 -0.509037
-0.125689 -0.913545 -0.38683
-0.181636 -0.809017 -0.559017
-0.0425156 -0.913545 -0.404509
-0.0614403 -0.809017 -0.584565
0.0425156 -0.913545 -0.404509
0.0614403 -0.809017 -0.584565
0.125689 -0.913545 -0.38683
0.181636 -0.809017 -0.559017
0.203368 -0.913545 -0.352244
0.293893 -0.809017 -0.509037
0.27216 -0.913545 -0.302264
0.393305 -0.809017 -0.43681
0.329057 -0.913545 -0.239074
0.475528 -0.809017 -0.345491
0.371572 -0.913545 -0.165435
0.536969 -0.809017 -0.239074
0.397848 -0.913545 -0.0845653
0.574941 -0.809017 -0.122207
0.406737 -0.913545 -4.60876e-16
0.587785 -0.809017 -6.66024e-16
0.587785 -0.809017 0
0.743145 -0.669131 0
0.574941 -0.809017 0.122207
0.726905 -0.669131 0.154509
0.536969 -0.809017 0.239074
0.678897 -0.669131 0.302264
0.475528 -0.809017 0.345491
0.601217 -0.669131 0.43681
0.393305 -0.809017 0.43681
0.497261 -0.669131 0.552264
0.293893 -0.809017 0.509037
0.371572 -0.669131 0.643582
0.181636 -0.809017 0.559017
0.229644 -0.669131 0.706773
0.0614403 -0.809017 0.584565
0.0776798 -0.669131 0.739074
-0.0614403 -0.809017 0.584565
-0.0776798 -0.669131 0.739074
-0.181636 -0.809017 0.559017
-0.229644 -0.669131 0.706773
-0.293893 -0.809017 0.509037
-0.371572 -0.669131 0.643582
-0.393305 -0.809017 0.43681
-0.497261 -0.669131 0.552264
-0.475528 -0.809017 0.345491
-0.601217 -0.669131 0.43681
-0.536969 -0.809017 0.239074
-0.678897 -0.669131 0.302264
-0.574941 -0.809017 0.122207
-0.726905 -0.669131 0.154509
-0.587785 -0.809017 3.33012e-16
-0.743145 -0.669131 4.21032e-16
-0.574941 -0.809017 -0.122207
-0.726905 -0.669131 -0.154509
-0.536969 -0.809017 -0.239074
-0.678897 -0.669131 -0.302264
-0.475528 -0.809017 -0.345491
-0.601217 -0.669131 -0.43681
-0.393305 -0.809017 -0.43681
-0.497261 -0.669131 -0.552264
-0.293893 -0.809017 -0.509037
-0.371572 -0.669131 -0.643582
-0.181636 -0.809017 -0.559017
-0.229644 -0.669131 -0.706773
-0.0614403 -0.809017 -0.584565
-0.0776798 -0.669131 -0.739074
0.0614403 -0.809017 -0.584565
0.0776798 -0.669131 -0.739074
0.181636 -0.809017 -0.559017
0.229644 -0.669131 -0.706773
0.293893 -0.809017 -0.509037
0.371572 -0.669131 -0.643582
0.393305 -0.809017 -0.43681
0.497261 -0.669131 -0.552264
0.475528 -0.809017 -0.345491
0.601217 -0.669131 -0.43681
0.536969 -0.809017 -0.239074
0.678897 -0.669131 -0.302264
0.574941 -0.809017 -0.122207
0.726905 -0.669131 -0.154509
0.587785 -0.809017 -6.66024e-16
0.743145 -0.669131 -8.42063e-16
0.743145 -0.669131 0
0.866025 -0.5 0
0.726905 -0.669131 0.154509
0.847101 -0.5 0.180057
0.678897 -0.669131 0.302264
0.791154 -0.5 0.352244
0.601217 -0.669131 0.43681
0.700629 -0.5 0.509037
0.497261 -0.669131 0.552264
0.579484 -0.5 0.643582
0.371572 -0.669131 0.643582
0.433013 -0.5 0.75
0.229644 -0.669131 0.706773
0.267617 -0.5 0.823639
0.0776798 -0.669131 0.739074
0.0905243 -0.5 0.861281
-0.0776798 -0.669131 0.739074
-0.0905243 -0.5 0.861281
-0.229644 -0.669131 0.706773
-0.267617 -0.5 0.823639
-0.371572 -0.669131 0.643582
-0.433013 -0.5 0.75
-0.497261 -0.669131 0.552264
-0.579484 -0.5 0.643582
-0.601217 -0.669131 0.43681
-0.700629 -0.5 0.509037
-0.678897 -0.669131 0.302264
-0.791154 -0.5 0.352244
-0.726905 -0.669131 0.154509
-0.847101 -0.5 0.180057
-0.743145 -0.669131 4.21032e-16
-0.866025 -0.5 4.9065e-16
-0.726905 -0.669131 -0.154509
-0.847101 -0.5 -0.180057
-0.678897 -0.669131 -0.302264
-0.791154 -0.5 -0.352244
-0.601217 -0.669131 -0.43681
-0.700629 -0.5 -0.509037
-0.497261 -0.669131 -0.552264
-0.579484 -0.5 -0.643582
-0.371572 -0.669131 -0.643582
-0.433013 -0.5 -0.75
-0.229644 -0.669131 -0.706773
-0.267617 -0.5 -0.823639
-0.0776798 -0.669131 -0.739074
-0.0905243 -0.5 -0.861281
0.0776798 -0.669131 -0.739074
0.0905243 -0.5 -0.861281
0.229644 -0.669131 -0.706773
0.267617 -0.5 -0.823639
0.371572 -0.669131 -0.643582
0.433013 -0.5 -0.75
0.497261 -0.669131 -0.552264
0.579484 -0.5 -0.643582
0.601217 -0.669131 -0.43681
0.700629 -0.5 -0.509037
0.678897 -0.669131 -0.302264
0.791154 -0.5 -0.352244
0.726905 -0.669131 -0.154509
0.847101 -0.5 -0.180057
0.743145 -0.669131 -8.42063e-16
0.866025 -0.5 -9.813e-16
0.866025 -0.5 0
0.951057 -0.309017 0
0.847101 -0.5 0.180057
0.930274 -0.309017 0.197736
0.791154 -0.5 0.352244
0.868833 -0.309017 0.38683
0.700629 -0.5 0.509037
0.769421 -0.309017 0.559017
0.579484 -0.5 0.643582
0.636381 -0.309017 0.706773
0.433013 -0.5 0.75
0.475528 -0.309017 0.823639
0.267617 -0.5 0.823639
0.293893 -0.309017 0.904508
0.0905243 -0.5 0.861281
0.0994125 -0.309017 0.945847
-0.0905243 -0.5 0.861281
-0.0994125 -0.309017 0.945847
-0.267617 -0.5 0.823639
-0.293893 -0.309017 0.904508
-0.433013 -0.5 0.75
-0.475528 -0.309017 0.823639
-0.579484 -0.5 0.643582
-0.636381 -0.309017 0.706773
-0.700629 -0.5 0.509037
-0.769421 -0.309017 0.559017
-0.791154 -0.5 0.352244
-0.868833 -0.309017 0.38683
-0.847101 -0.5 0.180057
-0.930274 -0.309017 0.197736
-0.866025 -0.5 4.9065e-16
-0.951057 -0.309017 5.38825e-16
-0.847101 -0.5 -0.180057
-0.930274 -0.309017 -0.197736
-0.791154 -0.5 -0.352244
-0.868833 -0.309017 -0.38683
-0.700629 -0.5 -0.509037
-0.769421 -0.309017 -0.559017
-0.579484 -0.5 -0.643582
-0.636381 -0.309017 -0.706773
-0.433013 -0.5 -0.75
-0.475528 -0.309017 -0.823639
-0.267617 -0.5 -0.823639
-0.293893 -0.309017 -0.904508
-0.0905243 -0.5 -0.861281
-0.0994125 -0.309017 -0.945847
0.0905243 -0.5 -0.861281
0.0994125 -0.309017 -0.945847
0.267617 -0.5 -0.823639
0.293893 -0.309017 -0.904508
0.433013 -0.5 -0.75
0.475528 -0.309017 -0.823639
0.579484 -0.5 -0.643582
0.636381 -0.309017 -0.706773
0.700629 -0.5 -0.509037
0.769421 -0.309017 -0.559017
0.791154 -0.5 -0.352244
0.868833 -0.309017 -0.38683
0.847101 -0.5 -0.180057
0.930274 -0.309017 -0.197736
0.866025 -0.5 -9.813e-16
0.951057 -0.309017 -1.07765e-15
0.951057 -0.309017 0
0.994522 -0.104528 0
0.930274 -0.309017 0.197736
0.972789 -0.104528 0.206773
0.868833 -0.309017 0.38683
0.908541 -0.104528 0.404509
0.769421 -0.309017 0.559017
0.804585 -0.104528 0.584565
0.636381 -0.309017 0.706773
0.665465 -0.104528 0.739074
0.475528 -0.309017 0.823639
0.497261 -0.104528 0.861281
0.293893 -0.309017 0.904508
0.307324 -0.104528 0.945847
0.0994125 -0.309017 0.945847
0.103956 -0.104528 0.989074
-0.0994125 -0.309017 0.945847
-0.103956 -0.104528 0.989074
-0.293893 -0.309017 0.904508
-0.307324 -0.104528 0.945847
-0.475528 -0.309017 0.823639
-0.497261 -0.104528 0.861281